TITLE="grid"                                                
 VARIABLES="X","Y"
 ZONE T="    2",,I=          31 ,J=          11 ,F="POINT"
  -1.00000000       0.00000000    
 -0.899999976       0.00000000    
 -0.799999952       0.00000000    
 -0.699999988       0.00000000    
 -0.599999964       0.00000000    
 -0.500000000       0.00000000    
 -0.399999976       0.00000000    
 -0.300000012       0.00000000    
 -0.199999928       0.00000000    
  -9.99999642E-02   0.00000000    
   0.00000000       0.00000000    
  0.100000024      0.309017092    
  0.200000048      0.587785423    
  0.299999952      0.809016883    
  0.399999976      0.951056480    
  0.500000000       1.00000000    
  0.600000143      0.951056361    
  0.700000048      0.809016883    
  0.800000072      0.587785006    
  0.899999976      0.309017032    
   1.00000000      -8.74227766E-08
   1.09999990       0.00000000    
   1.20000005       0.00000000    
   1.29999995       0.00000000    
   1.40000010       0.00000000    
   1.50000000       0.00000000    
   1.59999990       0.00000000    
   1.69999981       0.00000000    
   1.79999995       0.00000000    
   1.89999986       0.00000000    
   2.00000000       0.00000000    
  -1.00000000      0.100000001    
 -0.899999976      0.100000001    
 -0.799999952      0.100000001    
 -0.699999988      0.100000001    
 -0.599999964      0.100000001    
 -0.500000000      0.100000001    
 -0.399999976      0.100000001    
 -0.300000012      0.100000001    
 -0.199999928      0.100000001    
  -9.99999642E-02  0.100000001    
   0.00000000      0.100000001    
  0.100000024      0.378115386    
  0.200000048      0.629006863    
  0.299999952      0.828115225    
  0.399999976      0.955950856    
  0.500000000       1.00000000    
  0.600000143      0.955950737    
  0.700000048      0.828115225    
  0.800000072      0.629006505    
  0.899999976      0.378115326    
   1.00000000       9.99999270E-02
   1.09999990      0.100000001    
   1.20000005      0.100000001    
   1.29999995      0.100000001    
   1.40000010      0.100000001    
   1.50000000      0.100000001    
   1.59999990      0.100000001    
   1.69999981      0.100000001    
   1.79999995      0.100000001    
   1.89999986      0.100000001    
   2.00000000      0.100000001    
  -1.00000000      0.200000003    
 -0.899999976      0.200000003    
 -0.799999952      0.200000003    
 -0.699999988      0.200000003    
 -0.599999964      0.200000003    
 -0.500000000      0.200000003    
 -0.399999976      0.200000003    
 -0.300000012      0.200000003    
 -0.199999928      0.200000003    
  -9.99999642E-02  0.200000003    
   0.00000000      0.200000003    
  0.100000024      0.447213680    
  0.200000048      0.670228362    
  0.299999952      0.847213507    
  0.399999976      0.960845172    
  0.500000000       1.00000000    
  0.600000143      0.960845113    
  0.700000048      0.847213507    
  0.800000072      0.670228004    
  0.899999976      0.447213620    
   1.00000000      0.199999943    
   1.09999990      0.200000003    
   1.20000005      0.200000003    
   1.29999995      0.200000003    
   1.40000010      0.200000003    
   1.50000000      0.200000003    
   1.59999990      0.200000003    
   1.69999981      0.200000003    
   1.79999995      0.200000003    
   1.89999986      0.200000003    
   2.00000000      0.200000003    
  -1.00000000      0.300000012    
 -0.899999976      0.300000012    
 -0.799999952      0.300000012    
 -0.699999988      0.300000012    
 -0.599999964      0.300000012    
 -0.500000000      0.300000012    
 -0.399999976      0.300000012    
 -0.300000012      0.300000012    
 -0.199999928      0.300000012    
  -9.99999642E-02  0.300000012    
   0.00000000      0.300000012    
  0.100000024      0.516312003    
  0.200000048      0.711449802    
  0.299999952      0.866311848    
  0.399999976      0.965739548    
  0.500000000       1.00000000    
  0.600000143      0.965739429    
  0.700000048      0.866311848    
  0.800000072      0.711449504    
  0.899999976      0.516311944    
   1.00000000      0.299999952    
   1.09999990      0.300000012    
   1.20000005      0.300000012    
   1.29999995      0.300000012    
   1.40000010      0.300000012    
   1.50000000      0.300000012    
   1.59999990      0.300000012    
   1.69999981      0.300000012    
   1.79999995      0.300000012    
   1.89999986      0.300000012    
   2.00000000      0.300000012    
  -1.00000000      0.400000006    
 -0.899999976      0.400000006    
 -0.799999952      0.400000006    
 -0.699999988      0.400000006    
 -0.599999964      0.400000006    
 -0.500000000      0.400000006    
 -0.399999976      0.400000006    
 -0.300000012      0.400000006    
 -0.199999928      0.400000006    
  -9.99999642E-02  0.400000006    
   0.00000000      0.400000006    
  0.100000024      0.585410237    
  0.200000048      0.752671242    
  0.299999952      0.885410130    
  0.399999976      0.970633864    
  0.500000000       1.00000000    
  0.600000143      0.970633805    
  0.700000048      0.885410130    
  0.800000072      0.752671003    
  0.899999976      0.585410237    
   1.00000000      0.399999976    
   1.09999990      0.400000006    
   1.20000005      0.400000006    
   1.29999995      0.400000006    
   1.40000010      0.400000006    
   1.50000000      0.400000006    
   1.59999990      0.400000006    
   1.69999981      0.400000006    
   1.79999995      0.400000006    
   1.89999986      0.400000006    
   2.00000000      0.400000006    
  -1.00000000      0.500000000    
 -0.899999976      0.500000000    
 -0.799999952      0.500000000    
 -0.699999988      0.500000000    
 -0.599999964      0.500000000    
 -0.500000000      0.500000000    
 -0.399999976      0.500000000    
 -0.300000012      0.500000000    
 -0.199999928      0.500000000    
  -9.99999642E-02  0.500000000    
   0.00000000      0.500000000    
  0.100000024      0.654508591    
  0.200000048      0.793892741    
  0.299999952      0.904508471    
  0.399999976      0.975528240    
  0.500000000       1.00000000    
  0.600000143      0.975528181    
  0.700000048      0.904508471    
  0.800000072      0.793892503    
  0.899999976      0.654508471    
   1.00000000      0.499999970    
   1.09999990      0.500000000    
   1.20000005      0.500000000    
   1.29999995      0.500000000    
   1.40000010      0.500000000    
   1.50000000      0.500000000    
   1.59999990      0.500000000    
   1.69999981      0.500000000    
   1.79999995      0.500000000    
   1.89999986      0.500000000    
   2.00000000      0.500000000    
  -1.00000000      0.600000024    
 -0.899999976      0.600000024    
 -0.799999952      0.600000024    
 -0.699999988      0.600000024    
 -0.599999964      0.600000024    
 -0.500000000      0.600000024    
 -0.399999976      0.600000024    
 -0.300000012      0.600000024    
 -0.199999928      0.600000024    
  -9.99999642E-02  0.600000024    
   0.00000000      0.600000024    
  0.100000024      0.723606884    
  0.200000048      0.835114181    
  0.299999952      0.923606753    
  0.399999976      0.980422616    
  0.500000000       1.00000000    
  0.600000143      0.980422556    
  0.700000048      0.923606753    
  0.800000072      0.835114002    
  0.899999976      0.723606825    
   1.00000000      0.600000024    
   1.09999990      0.600000024    
   1.20000005      0.600000024    
   1.29999995      0.600000024    
   1.40000010      0.600000024    
   1.50000000      0.600000024    
   1.59999990      0.600000024    
   1.69999981      0.600000024    
   1.79999995      0.600000024    
   1.89999986      0.600000024    
   2.00000000      0.600000024    
  -1.00000000      0.699999988    
 -0.899999976      0.699999988    
 -0.799999952      0.699999988    
 -0.699999988      0.699999988    
 -0.599999964      0.699999988    
 -0.500000000      0.699999988    
 -0.399999976      0.699999988    
 -0.300000012      0.699999988    
 -0.199999928      0.699999988    
  -9.99999642E-02  0.699999988    
   0.00000000      0.699999988    
  0.100000024      0.792705178    
  0.200000048      0.876335621    
  0.299999952      0.942705035    
  0.399999976      0.985316932    
  0.500000000       1.00000000    
  0.600000143      0.985316932    
  0.700000048      0.942705035    
  0.800000072      0.876335502    
  0.899999976      0.792705059    
   1.00000000      0.699999988    
   1.09999990      0.699999988    
   1.20000005      0.699999988    
   1.29999995      0.699999988    
   1.40000010      0.699999988    
   1.50000000      0.699999988    
   1.59999990      0.699999988    
   1.69999981      0.699999988    
   1.79999995      0.699999988    
   1.89999986      0.699999988    
   2.00000000      0.699999988    
  -1.00000000      0.800000012    
 -0.899999976      0.800000012    
 -0.799999952      0.800000012    
 -0.699999988      0.800000012    
 -0.599999964      0.800000012    
 -0.500000000      0.800000012    
 -0.399999976      0.800000012    
 -0.300000012      0.800000012    
 -0.199999928      0.800000012    
  -9.99999642E-02  0.800000012    
   0.00000000      0.800000012    
  0.100000024      0.861803412    
  0.200000048      0.917557120    
  0.299999952      0.961803377    
  0.399999976      0.990211308    
  0.500000000       1.00000000    
  0.600000143      0.990211248    
  0.700000048      0.961803377    
  0.800000072      0.917557001    
  0.899999976      0.861803412    
   1.00000000      0.800000072    
   1.09999990      0.800000012    
   1.20000005      0.800000012    
   1.29999995      0.800000012    
   1.40000010      0.800000012    
   1.50000000      0.800000012    
   1.59999990      0.800000012    
   1.69999981      0.800000012    
   1.79999995      0.800000012    
   1.89999986      0.800000012    
   2.00000000      0.800000012    
  -1.00000000      0.899999976    
 -0.899999976      0.899999976    
 -0.799999952      0.899999976    
 -0.699999988      0.899999976    
 -0.599999964      0.899999976    
 -0.500000000      0.899999976    
 -0.399999976      0.899999976    
 -0.300000012      0.899999976    
 -0.199999928      0.899999976    
  -9.99999642E-02  0.899999976    
   0.00000000      0.899999976    
  0.100000024      0.930901766    
  0.200000048      0.958778501    
  0.299999952      0.980901718    
  0.399999976      0.995105624    
  0.500000000       1.00000000    
  0.600000143      0.995105624    
  0.700000048      0.980901718    
  0.800000072      0.958778501    
  0.899999976      0.930901647    
   1.00000000      0.900000036    
   1.09999990      0.899999976    
   1.20000005      0.899999976    
   1.29999995      0.899999976    
   1.40000010      0.899999976    
   1.50000000      0.899999976    
   1.59999990      0.899999976    
   1.69999981      0.899999976    
   1.79999995      0.899999976    
   1.89999986      0.899999976    
   2.00000000      0.899999976    
  -1.00000000       1.00000000    
 -0.899999976       1.00000000    
 -0.799999952       1.00000000    
 -0.699999988       1.00000000    
 -0.599999964       1.00000000    
 -0.500000000       1.00000000    
 -0.399999976       1.00000000    
 -0.300000012       1.00000000    
 -0.199999928       1.00000000    
  -9.99999642E-02   1.00000000    
   0.00000000       1.00000000    
  0.100000024       1.00000000    
  0.200000048       1.00000000    
  0.299999952       1.00000000    
  0.399999976       1.00000000    
  0.500000000       1.00000000    
  0.600000143       1.00000000    
  0.700000048       1.00000000    
  0.800000072       1.00000000    
  0.899999976       1.00000000    
   1.00000000       1.00000000    
   1.09999990       1.00000000    
   1.20000005       1.00000000    
   1.29999995       1.00000000    
   1.40000010       1.00000000    
   1.50000000       1.00000000    
   1.59999990       1.00000000    
   1.69999981       1.00000000    
   1.79999995       1.00000000    
   1.89999986       1.00000000    
   2.00000000       1.00000000    
