TITLE="grid"                                                
 VARIABLES="X","Y"
 ZONE T="    2",,I=          11 ,J=          11 ,F="POINT"
  -1.000000       0.000000    
 -0.7000000       0.000000    
 -0.4000000       0.000000    
 -0.1000000       0.000000    
  0.2000000       0.000000    
  0.5000000       0.000000    
  0.8000000       0.000000    
   1.100000       0.000000    
   1.400000       0.000000    
   1.700000       0.000000    
   2.000000       0.000000    
  -1.000000      0.1000000    
 -0.7000000      0.1000000    
 -0.4000000      0.1000000    
 -0.1000000      0.1000000    
  0.2000000      0.1000000    
  0.5000000      0.1000000    
  0.8000000      0.1000000    
   1.100000      0.1000000    
   1.400000      0.1000000    
   1.700000      0.1000000    
   2.000000      0.1000000    
  -1.000000      0.2000000    
 -0.7000000      0.2000000    
 -0.4000000      0.2000000    
 -0.1000000      0.2000000    
  0.2000000      0.2000000    
  0.5000000      0.2000000    
  0.8000000      0.2000000    
   1.100000      0.2000000    
   1.400000      0.2000000    
   1.700000      0.2000000    
   2.000000      0.2000000    
  -1.000000      0.3000000    
 -0.7000000      0.3000000    
 -0.4000000      0.3000000    
 -0.1000000      0.3000000    
  0.2000000      0.3000000    
  0.5000000      0.3000000    
  0.8000000      0.3000000    
   1.100000      0.3000000    
   1.400000      0.3000000    
   1.700000      0.3000000    
   2.000000      0.3000000    
  -1.000000      0.4000000    
 -0.7000000      0.4000000    
 -0.4000000      0.4000000    
 -0.1000000      0.4000000    
  0.2000000      0.4000000    
  0.5000000      0.4000000    
  0.8000000      0.4000000    
   1.100000      0.4000000    
   1.400000      0.4000000    
   1.700000      0.4000000    
   2.000000      0.4000000    
  -1.000000      0.5000000    
 -0.7000000      0.5000000    
 -0.4000000      0.5000000    
 -0.1000000      0.5000000    
  0.2000000      0.5000000    
  0.5000000      0.5000000    
  0.8000000      0.5000000    
   1.100000      0.5000000    
   1.400000      0.5000000    
   1.700000      0.5000000    
   2.000000      0.5000000    
  -1.000000      0.6000000    
 -0.7000000      0.6000000    
 -0.4000000      0.6000000    
 -0.1000000      0.6000000    
  0.2000000      0.6000000    
  0.5000000      0.6000000    
  0.8000000      0.6000000    
   1.100000      0.6000000    
   1.400000      0.6000000    
   1.700000      0.6000000    
   2.000000      0.6000000    
  -1.000000      0.7000000    
 -0.7000000      0.7000000    
 -0.4000000      0.7000000    
 -0.1000000      0.7000000    
  0.2000000      0.7000000    
  0.5000000      0.7000000    
  0.8000000      0.7000000    
   1.100000      0.7000000    
   1.400000      0.7000000    
   1.700000      0.7000000    
   2.000000      0.7000000    
  -1.000000      0.8000000    
 -0.7000000      0.8000000    
 -0.4000000      0.8000000    
 -0.1000000      0.8000000    
  0.2000000      0.8000000    
  0.5000000      0.8000000    
  0.8000000      0.8000000    
   1.100000      0.8000000    
   1.400000      0.8000000    
   1.700000      0.8000000    
   2.000000      0.8000000    
  -1.000000      0.9000000    
 -0.7000000      0.9000000    
 -0.4000000      0.9000000    
 -0.1000000      0.9000000    
  0.2000000      0.9000000    
  0.5000000      0.9000000    
  0.8000000      0.9000000    
   1.100000      0.9000000    
   1.400000      0.9000000    
   1.700000      0.9000000    
   2.000000      0.9000000    
  -1.000000       1.000000    
 -0.7000000       1.000000    
 -0.4000000       1.000000    
 -0.1000000       1.000000    
  0.2000000       1.000000    
  0.5000000       1.000000    
  0.8000000       1.000000    
   1.100000       1.000000    
   1.400000       1.000000    
   1.700000       1.000000    
   2.000000       1.000000    
