TITLE="grid"                                                
 VARIABLES="X","Y"
 ZONE T="    2",,I=          31 ,J=          11 ,F="POINT"
  -1.00000000       0.00000000    
 -0.899999976       0.00000000    
 -0.799999952       0.00000000    
 -0.699999988       0.00000000    
 -0.599999964       0.00000000    
 -0.500000000       0.00000000    
 -0.399999976       0.00000000    
 -0.300000012       0.00000000    
 -0.199999928       0.00000000    
  -9.99999642E-02   0.00000000    
   0.00000000       0.00000000    
  0.100000024      0.154508546    
  0.200000048      0.293892711    
  0.299999952      0.404508442    
  0.399999976      0.475528240    
  0.500000000      0.500000000    
  0.600000143      0.475528181    
  0.700000048      0.404508442    
  0.800000072      0.293892503    
  0.899999976      0.154508516    
   1.00000000      -4.37113883E-08
   1.09999990       0.00000000    
   1.20000005       0.00000000    
   1.29999995       0.00000000    
   1.40000010       0.00000000    
   1.50000000       0.00000000    
   1.59999990       0.00000000    
   1.69999981       0.00000000    
   1.79999995       0.00000000    
   1.89999986       0.00000000    
   2.00000000       0.00000000    
  -1.00000000      0.100000001    
 -0.899999976      0.100000001    
 -0.799999952      0.100000001    
 -0.699999988      0.100000001    
 -0.599999964      0.100000001    
 -0.500000000      0.100000001    
 -0.399999976      0.100000001    
 -0.300000012      0.100000001    
 -0.199999928      0.100000001    
  -9.99999642E-02  0.100000001    
   0.00000000      0.100000001    
  0.100000024      0.239057690    
  0.200000048      0.364503443    
  0.299999952      0.464057595    
  0.399999976      0.527975440    
  0.500000000      0.550000012    
  0.600000143      0.527975380    
  0.700000048      0.464057595    
  0.800000072      0.364503264    
  0.899999976      0.239057660    
   1.00000000       9.99999568E-02
   1.09999990      0.100000001    
   1.20000005      0.100000001    
   1.29999995      0.100000001    
   1.40000010      0.100000001    
   1.50000000      0.100000001    
   1.59999990      0.100000001    
   1.69999981      0.100000001    
   1.79999995      0.100000001    
   1.89999986      0.100000001    
   2.00000000      0.100000001    
  -1.00000000      0.200000003    
 -0.899999976      0.200000003    
 -0.799999952      0.200000003    
 -0.699999988      0.200000003    
 -0.599999964      0.200000003    
 -0.500000000      0.200000003    
 -0.399999976      0.200000003    
 -0.300000012      0.200000003    
 -0.199999928      0.200000003    
  -9.99999642E-02  0.200000003    
   0.00000000      0.200000003    
  0.100000024      0.323606849    
  0.200000048      0.435114145    
  0.299999952      0.523606777    
  0.399999976      0.580422580    
  0.500000000      0.600000024    
  0.600000143      0.580422521    
  0.700000048      0.523606777    
  0.800000072      0.435114026    
  0.899999976      0.323606819    
   1.00000000      0.199999958    
   1.09999990      0.200000003    
   1.20000005      0.200000003    
   1.29999995      0.200000003    
   1.40000010      0.200000003    
   1.50000000      0.200000003    
   1.59999990      0.200000003    
   1.69999981      0.200000003    
   1.79999995      0.200000003    
   1.89999986      0.200000003    
   2.00000000      0.200000003    
  -1.00000000      0.300000012    
 -0.899999976      0.300000012    
 -0.799999952      0.300000012    
 -0.699999988      0.300000012    
 -0.599999964      0.300000012    
 -0.500000000      0.300000012    
 -0.399999976      0.300000012    
 -0.300000012      0.300000012    
 -0.199999928      0.300000012    
  -9.99999642E-02  0.300000012    
   0.00000000      0.300000012    
  0.100000024      0.408155978    
  0.200000048      0.505724907    
  0.299999952      0.583155870    
  0.399999976      0.632869780    
  0.500000000      0.649999976    
  0.600000143      0.632869720    
  0.700000048      0.583155870    
  0.800000072      0.505724788    
  0.899999976      0.408155978    
   1.00000000      0.299999982    
   1.09999990      0.300000012    
   1.20000005      0.300000012    
   1.29999995      0.300000012    
   1.40000010      0.300000012    
   1.50000000      0.300000012    
   1.59999990      0.300000012    
   1.69999981      0.300000012    
   1.79999995      0.300000012    
   1.89999986      0.300000012    
   2.00000000      0.300000012    
  -1.00000000      0.400000006    
 -0.899999976      0.400000006    
 -0.799999952      0.400000006    
 -0.699999988      0.400000006    
 -0.599999964      0.400000006    
 -0.500000000      0.400000006    
 -0.399999976      0.400000006    
 -0.300000012      0.400000006    
 -0.199999928      0.400000006    
  -9.99999642E-02  0.400000006    
   0.00000000      0.400000006    
  0.100000024      0.492705166    
  0.200000048      0.576335609    
  0.299999952      0.642705083    
  0.399999976      0.685316920    
  0.500000000      0.699999988    
  0.600000143      0.685316920    
  0.700000048      0.642705083    
  0.800000072      0.576335549    
  0.899999976      0.492705107    
   1.00000000      0.399999976    
   1.09999990      0.400000006    
   1.20000005      0.400000006    
   1.29999995      0.400000006    
   1.40000010      0.400000006    
   1.50000000      0.400000006    
   1.59999990      0.400000006    
   1.69999981      0.400000006    
   1.79999995      0.400000006    
   1.89999986      0.400000006    
   2.00000000      0.400000006    
  -1.00000000      0.500000000    
 -0.899999976      0.500000000    
 -0.799999952      0.500000000    
 -0.699999988      0.500000000    
 -0.599999964      0.500000000    
 -0.500000000      0.500000000    
 -0.399999976      0.500000000    
 -0.300000012      0.500000000    
 -0.199999928      0.500000000    
  -9.99999642E-02  0.500000000    
   0.00000000      0.500000000    
  0.100000024      0.577254295    
  0.200000048      0.646946311    
  0.299999952      0.702254176    
  0.399999976      0.737764120    
  0.500000000      0.750000000    
  0.600000143      0.737764120    
  0.700000048      0.702254176    
  0.800000072      0.646946251    
  0.899999976      0.577254236    
   1.00000000      0.499999970    
   1.09999990      0.500000000    
   1.20000005      0.500000000    
   1.29999995      0.500000000    
   1.40000010      0.500000000    
   1.50000000      0.500000000    
   1.59999990      0.500000000    
   1.69999981      0.500000000    
   1.79999995      0.500000000    
   1.89999986      0.500000000    
   2.00000000      0.500000000    
  -1.00000000      0.600000024    
 -0.899999976      0.600000024    
 -0.799999952      0.600000024    
 -0.699999988      0.600000024    
 -0.599999964      0.600000024    
 -0.500000000      0.600000024    
 -0.399999976      0.600000024    
 -0.300000012      0.600000024    
 -0.199999928      0.600000024    
  -9.99999642E-02  0.600000024    
   0.00000000      0.600000024    
  0.100000024      0.661803424    
  0.200000048      0.717557073    
  0.299999952      0.761803389    
  0.399999976      0.790211320    
  0.500000000      0.800000012    
  0.600000143      0.790211320    
  0.700000048      0.761803389    
  0.800000072      0.717557013    
  0.899999976      0.661803424    
   1.00000000      0.599999964    
   1.09999990      0.600000024    
   1.20000005      0.600000024    
   1.29999995      0.600000024    
   1.40000010      0.600000024    
   1.50000000      0.600000024    
   1.59999990      0.600000024    
   1.69999981      0.600000024    
   1.79999995      0.600000024    
   1.89999986      0.600000024    
   2.00000000      0.600000024    
  -1.00000000      0.699999988    
 -0.899999976      0.699999988    
 -0.799999952      0.699999988    
 -0.699999988      0.699999988    
 -0.599999964      0.699999988    
 -0.500000000      0.699999988    
 -0.399999976      0.699999988    
 -0.300000012      0.699999988    
 -0.199999928      0.699999988    
  -9.99999642E-02  0.699999988    
   0.00000000      0.699999988    
  0.100000024      0.746352553    
  0.200000048      0.788167775    
  0.299999952      0.821352482    
  0.399999976      0.842658460    
  0.500000000      0.850000024    
  0.600000143      0.842658460    
  0.700000048      0.821352482    
  0.800000072      0.788167715    
  0.899999976      0.746352553    
   1.00000000      0.699999928    
   1.09999990      0.699999988    
   1.20000005      0.699999988    
   1.29999995      0.699999988    
   1.40000010      0.699999988    
   1.50000000      0.699999988    
   1.59999990      0.699999988    
   1.69999981      0.699999988    
   1.79999995      0.699999988    
   1.89999986      0.699999988    
   2.00000000      0.699999988    
  -1.00000000      0.800000012    
 -0.899999976      0.800000012    
 -0.799999952      0.800000012    
 -0.699999988      0.800000012    
 -0.599999964      0.800000012    
 -0.500000000      0.800000012    
 -0.399999976      0.800000012    
 -0.300000012      0.800000012    
 -0.199999928      0.800000012    
  -9.99999642E-02  0.800000012    
   0.00000000      0.800000012    
  0.100000024      0.830901742    
  0.200000048      0.858778477    
  0.299999952      0.880901694    
  0.399999976      0.895105660    
  0.500000000      0.899999976    
  0.600000143      0.895105600    
  0.700000048      0.880901694    
  0.800000072      0.858778536    
  0.899999976      0.830901742    
   1.00000000      0.799999952    
   1.09999990      0.800000012    
   1.20000005      0.800000012    
   1.29999995      0.800000012    
   1.40000010      0.800000012    
   1.50000000      0.800000012    
   1.59999990      0.800000012    
   1.69999981      0.800000012    
   1.79999995      0.800000012    
   1.89999986      0.800000012    
   2.00000000      0.800000012    
  -1.00000000      0.899999976    
 -0.899999976      0.899999976    
 -0.799999952      0.899999976    
 -0.699999988      0.899999976    
 -0.599999964      0.899999976    
 -0.500000000      0.899999976    
 -0.399999976      0.899999976    
 -0.300000012      0.899999976    
 -0.199999928      0.899999976    
  -9.99999642E-02  0.899999976    
   0.00000000      0.899999976    
  0.100000024      0.915450811    
  0.200000048      0.929389238    
  0.299999952      0.940450788    
  0.399999976      0.947552800    
  0.500000000      0.949999988    
  0.600000143      0.947552800    
  0.700000048      0.940450788    
  0.800000072      0.929389238    
  0.899999976      0.915450811    
   1.00000000      0.899999917    
   1.09999990      0.899999976    
   1.20000005      0.899999976    
   1.29999995      0.899999976    
   1.40000010      0.899999976    
   1.50000000      0.899999976    
   1.59999990      0.899999976    
   1.69999981      0.899999976    
   1.79999995      0.899999976    
   1.89999986      0.899999976    
   2.00000000      0.899999976    
  -1.00000000       1.00000000    
 -0.899999976       1.00000000    
 -0.799999952       1.00000000    
 -0.699999988       1.00000000    
 -0.599999964       1.00000000    
 -0.500000000       1.00000000    
 -0.399999976       1.00000000    
 -0.300000012       1.00000000    
 -0.199999928       1.00000000    
  -9.99999642E-02   1.00000000    
   0.00000000       1.00000000    
  0.100000024       1.00000000    
  0.200000048       1.00000000    
  0.299999952       1.00000000    
  0.399999976       1.00000000    
  0.500000000       1.00000000    
  0.600000143       1.00000000    
  0.700000048       1.00000000    
  0.800000072       1.00000000    
  0.899999976       1.00000000    
   1.00000000      0.999999940    
   1.09999990       1.00000000    
   1.20000005       1.00000000    
   1.29999995       1.00000000    
   1.40000010       1.00000000    
   1.50000000       1.00000000    
   1.59999990       1.00000000    
   1.69999981       1.00000000    
   1.79999995       1.00000000    
   1.89999986       1.00000000    
   2.00000000       1.00000000    
