TITLE="sol"                                                 
 VARIABLES="X","Y","P","M","U","V","TT","S"
 ZONE T="    0",,I=          10 ,J=          10 ,F="POINT"
 -0.8500000      5.0000001E-02   1.000000       0.000000       0.000000       0.000000       1.000000       0.000000    
 -0.5500000      5.0000001E-02   1.000000       0.000000       0.000000       0.000000       1.000000       0.000000    
 -0.2500000      5.0000001E-02   1.000000       0.000000       0.000000       0.000000       1.000000       0.000000    
  5.0000001E-02  5.0000001E-02   1.000000       0.000000       0.000000       0.000000       1.000000       0.000000    
  0.3500000      5.0000001E-02   1.000000       0.000000       0.000000       0.000000       1.000000       0.000000    
  0.6500000      5.0000001E-02   1.000000       0.000000       0.000000       0.000000       1.000000       0.000000    
  0.9500000      5.0000001E-02   1.000000       0.000000       0.000000       0.000000       1.000000       0.000000    
   1.250000      5.0000001E-02   1.000000       0.000000       0.000000       0.000000       1.000000       0.000000    
   1.550000      5.0000001E-02   1.000000       0.000000       0.000000       0.000000       1.000000       0.000000    
   1.850000      5.0000001E-02   1.000000       0.000000       0.000000       0.000000       1.000000       0.000000    
 -0.8500000      0.1500000       1.000000       0.000000       0.000000       0.000000       1.000000       0.000000    
 -0.5500000      0.1500000       1.000000       0.000000       0.000000       0.000000       1.000000       0.000000    
 -0.2500000      0.1500000       1.000000       0.000000       0.000000       0.000000       1.000000       0.000000    
  5.0000001E-02  0.1500000       1.000000       0.000000       0.000000       0.000000       1.000000       0.000000    
  0.3500000      0.1500000       1.000000       0.000000       0.000000       0.000000       1.000000       0.000000    
  0.6500000      0.1500000       1.000000       0.000000       0.000000       0.000000       1.000000       0.000000    
  0.9500000      0.1500000       1.000000       0.000000       0.000000       0.000000       1.000000       0.000000    
   1.250000      0.1500000       1.000000       0.000000       0.000000       0.000000       1.000000       0.000000    
   1.550000      0.1500000       1.000000       0.000000       0.000000       0.000000       1.000000       0.000000    
   1.850000      0.1500000       1.000000       0.000000       0.000000       0.000000       1.000000       0.000000    
 -0.8500000      0.2500000       1.000000       0.000000       0.000000       0.000000       1.000000       0.000000    
 -0.5500000      0.2500000       1.000000       0.000000       0.000000       0.000000       1.000000       0.000000    
 -0.2500000      0.2500000       1.000000       0.000000       0.000000       0.000000       1.000000       0.000000    
  5.0000001E-02  0.2500000       1.000000       0.000000       0.000000       0.000000       1.000000       0.000000    
  0.3500000      0.2500000       1.000000       0.000000       0.000000       0.000000       1.000000       0.000000    
  0.6500000      0.2500000       1.000000       0.000000       0.000000       0.000000       1.000000       0.000000    
  0.9500000      0.2500000       1.000000       0.000000       0.000000       0.000000       1.000000       0.000000    
   1.250000      0.2500000       1.000000       0.000000       0.000000       0.000000       1.000000       0.000000    
   1.550000      0.2500000       1.000000       0.000000       0.000000       0.000000       1.000000       0.000000    
   1.850000      0.2500000       1.000000       0.000000       0.000000       0.000000       1.000000       0.000000    
 -0.8500000      0.3500000       1.000000       0.000000       0.000000       0.000000       1.000000       0.000000    
 -0.5500000      0.3500000       1.000000       0.000000       0.000000       0.000000       1.000000       0.000000    
 -0.2500000      0.3500000       1.000000       0.000000       0.000000       0.000000       1.000000       0.000000    
  5.0000001E-02  0.3500000       1.000000       0.000000       0.000000       0.000000       1.000000       0.000000    
  0.3500000      0.3500000       1.000000       0.000000       0.000000       0.000000       1.000000       0.000000    
  0.6500000      0.3500000       1.000000       0.000000       0.000000       0.000000       1.000000       0.000000    
  0.9500000      0.3500000       1.000000       0.000000       0.000000       0.000000       1.000000       0.000000    
   1.250000      0.3500000       1.000000       0.000000       0.000000       0.000000       1.000000       0.000000    
   1.550000      0.3500000       1.000000       0.000000       0.000000       0.000000       1.000000       0.000000    
   1.850000      0.3500000       1.000000       0.000000       0.000000       0.000000       1.000000       0.000000    
 -0.8500000      0.4500000       1.000000       0.000000       0.000000       0.000000       1.000000       0.000000    
 -0.5500000      0.4500000       1.000000       0.000000       0.000000       0.000000       1.000000       0.000000    
 -0.2500000      0.4500000       1.000000       0.000000       0.000000       0.000000       1.000000       0.000000    
  5.0000001E-02  0.4500000       1.000000       0.000000       0.000000       0.000000       1.000000       0.000000    
  0.3500000      0.4500000       1.000000       0.000000       0.000000       0.000000       1.000000       0.000000    
  0.6500000      0.4500000       1.000000       0.000000       0.000000       0.000000       1.000000       0.000000    
  0.9500000      0.4500000       1.000000       0.000000       0.000000       0.000000       1.000000       0.000000    
   1.250000      0.4500000       1.000000       0.000000       0.000000       0.000000       1.000000       0.000000    
   1.550000      0.4500000       1.000000       0.000000       0.000000       0.000000       1.000000       0.000000    
   1.850000      0.4500000       1.000000       0.000000       0.000000       0.000000       1.000000       0.000000    
 -0.8500000      0.5500000       1.000000       0.000000       0.000000       0.000000       1.000000       0.000000    
 -0.5500000      0.5500000       1.000000       0.000000       0.000000       0.000000       1.000000       0.000000    
 -0.2500000      0.5500000       1.000000       0.000000       0.000000       0.000000       1.000000       0.000000    
  5.0000001E-02  0.5500000       1.000000       0.000000       0.000000       0.000000       1.000000       0.000000    
  0.3500000      0.5500000       1.000000       0.000000       0.000000       0.000000       1.000000       0.000000    
  0.6500000      0.5500000       1.000000       0.000000       0.000000       0.000000       1.000000       0.000000    
  0.9500000      0.5500000       1.000000       0.000000       0.000000       0.000000       1.000000       0.000000    
   1.250000      0.5500000       1.000000       0.000000       0.000000       0.000000       1.000000       0.000000    
   1.550000      0.5500000       1.000000       0.000000       0.000000       0.000000       1.000000       0.000000    
   1.850000      0.5500000       1.000000       0.000000       0.000000       0.000000       1.000000       0.000000    
 -0.8500000      0.6500000       1.000000       0.000000       0.000000       0.000000       1.000000       0.000000    
 -0.5500000      0.6500000       1.000000       0.000000       0.000000       0.000000       1.000000       0.000000    
 -0.2500000      0.6500000       1.000000       0.000000       0.000000       0.000000       1.000000       0.000000    
  5.0000001E-02  0.6500000       1.000000       0.000000       0.000000       0.000000       1.000000       0.000000    
  0.3500000      0.6500000       1.000000       0.000000       0.000000       0.000000       1.000000       0.000000    
  0.6500000      0.6500000       1.000000       0.000000       0.000000       0.000000       1.000000       0.000000    
  0.9500000      0.6500000       1.000000       0.000000       0.000000       0.000000       1.000000       0.000000    
   1.250000      0.6500000       1.000000       0.000000       0.000000       0.000000       1.000000       0.000000    
   1.550000      0.6500000       1.000000       0.000000       0.000000       0.000000       1.000000       0.000000    
   1.850000      0.6500000       1.000000       0.000000       0.000000       0.000000       1.000000       0.000000    
 -0.8500000      0.7500000       1.000000       0.000000       0.000000       0.000000       1.000000       0.000000    
 -0.5500000      0.7500000       1.000000       0.000000       0.000000       0.000000       1.000000       0.000000    
 -0.2500000      0.7500000       1.000000       0.000000       0.000000       0.000000       1.000000       0.000000    
  5.0000001E-02  0.7500000       1.000000       0.000000       0.000000       0.000000       1.000000       0.000000    
  0.3500000      0.7500000       1.000000       0.000000       0.000000       0.000000       1.000000       0.000000    
  0.6500000      0.7500000       1.000000       0.000000       0.000000       0.000000       1.000000       0.000000    
  0.9500000      0.7500000       1.000000       0.000000       0.000000       0.000000       1.000000       0.000000    
   1.250000      0.7500000       1.000000       0.000000       0.000000       0.000000       1.000000       0.000000    
   1.550000      0.7500000       1.000000       0.000000       0.000000       0.000000       1.000000       0.000000    
   1.850000      0.7500000       1.000000       0.000000       0.000000       0.000000       1.000000       0.000000    
 -0.8500000      0.8500000       1.000000       0.000000       0.000000       0.000000       1.000000       0.000000    
 -0.5500000      0.8500000       1.000000       0.000000       0.000000       0.000000       1.000000       0.000000    
 -0.2500000      0.8500000       1.000000       0.000000       0.000000       0.000000       1.000000       0.000000    
  5.0000001E-02  0.8500000       1.000000       0.000000       0.000000       0.000000       1.000000       0.000000    
  0.3500000      0.8500000       1.000000       0.000000       0.000000       0.000000       1.000000       0.000000    
  0.6500000      0.8500000       1.000000       0.000000       0.000000       0.000000       1.000000       0.000000    
  0.9500000      0.8500000       1.000000       0.000000       0.000000       0.000000       1.000000       0.000000    
   1.250000      0.8500000       1.000000       0.000000       0.000000       0.000000       1.000000       0.000000    
   1.550000      0.8500000       1.000000       0.000000       0.000000       0.000000       1.000000       0.000000    
   1.850000      0.8500000       1.000000       0.000000       0.000000       0.000000       1.000000       0.000000    
 -0.8500000      0.9500000       1.000000       0.000000       0.000000       0.000000       1.000000       0.000000    
 -0.5500000      0.9500000       1.000000       0.000000       0.000000       0.000000       1.000000       0.000000    
 -0.2500000      0.9500000       1.000000       0.000000       0.000000       0.000000       1.000000       0.000000    
  5.0000001E-02  0.9500000       1.000000       0.000000       0.000000       0.000000       1.000000       0.000000    
  0.3500000      0.9500000       1.000000       0.000000       0.000000       0.000000       1.000000       0.000000    
  0.6500000      0.9500000       1.000000       0.000000       0.000000       0.000000       1.000000       0.000000    
  0.9500000      0.9500000       1.000000       0.000000       0.000000       0.000000       1.000000       0.000000    
   1.250000      0.9500000       1.000000       0.000000       0.000000       0.000000       1.000000       0.000000    
   1.550000      0.9500000       1.000000       0.000000       0.000000       0.000000       1.000000       0.000000    
   1.850000      0.9500000       1.000000       0.000000       0.000000       0.000000       1.000000       0.000000    
